
                                 *****************
                                 * O   R   C   A *
                                 *****************

           --- An Ab Initio, DFT and Semiempirical electronic structure package ---

                  #######################################################
                  #                        -***-                        #
                  #  Department of molecular theory and spectroscopy    #
                  #              Directorship: Frank Neese              #
                  # Max Planck Institute for Chemical Energy Conversion #
                  #                  D-45470 Muelheim/Ruhr              #
                  #                       Germany                       #
                  #                                                     #
                  #                  All rights reserved                #
                  #                        -***-                        #
                  #######################################################


                         Program Version 4.0.0.2 - RELEASE -


 With contributions from (in alphabetic order):
   Daniel Aravena         : Magnetic Properties
   Michael Atanasov       : Ab Initio Ligand Field Theory
   Ute Becker             : Parallelization
   Martin Brehm           : Molecular dynamics
   Dmytro Bykov           : SCF Hessian
   Vijay G. Chilkuri      : MRCI spin determinant printing
   Dipayan Datta          : RHF DLPNO-CCSD density
   Achintya Kumar Dutta   : EOM-CC, STEOM-CC
   Dmitry Ganyushin       : Spin-Orbit,Spin-Spin,Magnetic field MRCI
   Yang Guo               : DLPNO-NEVPT2, CIM, IAO-localization
   Andreas Hansen         : Spin unrestricted coupled pair/coupled cluster methods
   Lee Huntington         : MR-EOM, pCC
   Robert Izsak           : Overlap fitted RIJCOSX, COSX-SCS-MP3, EOM
   Christian Kollmar      : KDIIS, OOCD, Brueckner-CCSD(T), CCSD density
   Simone Kossmann        : Meta GGA functionals, TD-DFT gradient, OOMP2, MP2 Hessian
   Martin Krupicka        : AUTO-CI
   Dagmar Lenk            : GEPOL surface
   Dimitrios Liakos       : Extrapolation schemes; parallel MDCI
   Dimitrios Manganas     : ROCIS; embedding schemes
   Dimitrios Pantazis     : SARC Basis sets
   Taras Petrenko         : DFT Hessian,TD-DFT gradient, ASA, ECA, R-Raman, ABS, FL, XAS/XES, NRVS
   Peter Pinski           : DLPNO-MP2
   Christoph Reimann      : Effective Core Potentials
   Marius Retegan         : Local ZFS, SOC
   Christoph Riplinger    : Optimizer, TS searches, QM/MM, DLPNO-CCSD(T), (RO)-DLPNO pert. Triples
   Tobias Risthaus        : Range-separated hybrids, TD-DFT gradient, RPA, STAB
   Michael Roemelt        : Restricted open shell CIS
   Masaaki Saitow         : Open-shell DLPNO
   Barbara Sandhoefer     : DKH picture change effects
   Kantharuban Sivalingam : CASSCF convergence, NEVPT2, FIC-MRCI
   Georgi Stoychev        : AutoAux
   Boris Wezisla          : Elementary symmetry handling
   Frank Wennmohs         : Technical directorship


 We gratefully acknowledge several colleagues who have allowed us to
 interface, adapt or use parts of their codes:
   Stefan Grimme, W. Hujo, H. Kruse,             : VdW corrections, initial TS optimization,
                  C. Bannwarth                     DFT functionals, gCP, sTDA/sTD-DF
   Ed Valeev                                     : LibInt (2-el integral package), F12 methods
   Garnet Chan, S. Sharma, J. Yang, R. Olivares  : DMRG
   Ulf Ekstrom                                   : XCFun DFT Library
   Mihaly Kallay                                 : mrcc  (arbitrary order and MRCC methods)
   Jiri Pittner, Ondrej Demel                    : Mk-CCSD
   Frank Weinhold                                : gennbo (NPA and NBO analysis)
   Christopher J. Cramer and Donald G. Truhlar   : smd solvation model


 Your calculation uses the libint2 library for the computation of 2-el integrals
 For citations please refer to: http://libint.valeyev.net

 This ORCA versions uses:
   CBLAS   interface :  Fast vector & matrix operations
   LAPACKE interface :  Fast linear algebra routines
   SCALAPACK package :  Parallel linear algebra routines


SCAN-COORDS
Your calculation utilizes the basis: 6-311G
   H, Li - Ne  : R. Krishnan, J. S. Binkley, R. Seeger and J. A. Pople, J. Chem. Phys. 72, 650 (1980).
   Na - Ar     : A. D. McLean and G. S. Chandler J. Chem. Phys. 72, 5639, (1980).
   K  - Ca     : J.-P. Blaudeau, M. P. McGrath, L. A. Curtiss and L. Radom, J. Chem. Phys. 107, 5016 (1997).
   Ga - Kr     : L. A. Curtiss, M. P. McGrath, J.-P. Blandeau, N. E. Davis, R. C. Binning and L. Radom, J. Chem. Phys. 103, 6104 (1995).

================================================================================
                                        WARNINGS
                       Please study these warnings very carefully!
================================================================================

Warning: TCutStore was < 0. Adjusted to Thresh (uncritical)

WARNING: your system is open-shell and RHF/RKS was chosen
  ===> : WILL SWITCH to UHF/UKS


WARNING: Geometry Optimization
  ===> : Switching off AutoStart
         For restart on a previous wavefunction, please use MOREAD

INFO   : the flag for use of LIBINT has been found!

================================================================================
                                       INPUT FILE
================================================================================
NAME = 5MnO+/32523463.inp
|  1> # 5MnO+
|  2> 
|  3> ! B3LYP
|  4> ! 6-311G
|  5> ! TightOpt
|  6> 
|  7> 
|  8> 
|  9> 
| 10> 
| 11> %coords
| 12> 	CTyp = xyz
| 13> 	Charge = 1
| 14> 	Mult = 5
| 15> 	coords
| 16>   Mn  0.00080155127766      0.00000000000000      0.00000000000000
| 17>   O   1.72929768733234      0.00000000000000      0.00000000000000
| 18> 
| 19> 	end
| 20> end
| 21> 
| 22>                          ****END OF INPUT****
================================================================================

                       *****************************
                       * Geometry Optimization Run *
                       *****************************

Geometry optimization settings:
Update method            Update   .... BFGS
Choice of coordinates    CoordSys .... Redundant Internals
Initial Hessian          InHess   .... Almoef's Model

Convergence Tolerances:
Energy Change            TolE     ....  1.0000e-06 Eh
Max. Gradient            TolMAXG  ....  1.0000e-04 Eh/bohr
RMS Gradient             TolRMSG  ....  3.0000e-05 Eh/bohr
Max. Displacement        TolMAXD  ....  1.0000e-03 bohr
RMS Displacement         TolRMSD  ....  6.0000e-04 bohr

------------------------------------------------------------------------------
                        ORCA OPTIMIZATION COORDINATE SETUP
------------------------------------------------------------------------------

The optimization will be done in new redundant internal coordinates
Making redundant internal coordinates   ...  (new redundants) done
Evaluating the initial hessian          ...  (Almloef) done
Evaluating the coordinates              ...  done
Calculating the B-matrix                .... done
Calculating the G-matrix                .... done
Diagonalizing the G-matrix              .... done
The first mode is                       ....    0
The number of degrees of freedom        ....    1

    -----------------------------------------------------------------
                    Redundant Internal Coordinates


    -----------------------------------------------------------------
         Definition                    Initial Value    Approx d2E/dq
    -----------------------------------------------------------------
      1. B(O   1,Mn  0)                  1.7285         1.632869   
    -----------------------------------------------------------------

Number of atoms                         .... 2
Number of degrees of freedom            .... 1

         *************************************************************
         *                GEOMETRY OPTIMIZATION CYCLE   1            *
         *************************************************************
---------------------------------
CARTESIAN COORDINATES (ANGSTROEM)
---------------------------------
  Mn     0.000802    0.000000    0.000000
  O      1.729298    0.000000    0.000000

----------------------------
CARTESIAN COORDINATES (A.U.)
----------------------------
  NO LB      ZA    FRAG     MASS         X           Y           Z
   0 Mn   25.0000    0    54.940    0.001515    0.000000    0.000000
   1 O     8.0000    0    15.999    3.267899    0.000000    0.000000

--------------------------------
INTERNAL COORDINATES (ANGSTROEM)
--------------------------------
 Mn     0   0   0     0.000000000000     0.00000000     0.00000000
 O      1   0   0     1.728496136055     0.00000000     0.00000000

---------------------------
INTERNAL COORDINATES (A.U.)
---------------------------
 Mn     0   0   0     0.000000000000     0.00000000     0.00000000
 O      1   0   0     3.266384320684     0.00000000     0.00000000

---------------------
BASIS SET INFORMATION
---------------------
There are 2 groups of distinct atoms

 Group   1 Type Mn  : 14s9p5d contracted to 9s5p3d pattern {611111111/51111/311}
 Group   2 Type O   : 11s5p contracted to 4s3p pattern {6311/311}

Atom   0Mn   basis set group =>   1
Atom   1O    basis set group =>   2
------------------------------------------------------------------------------
                           ORCA GTO INTEGRAL CALCULATION
------------------------------------------------------------------------------

                         BASIS SET STATISTICS AND STARTUP INFO

 # of primitive gaussian shells          ...   44
 # of primitive gaussian functions       ...   92
 # of contracted shells                  ...   24
 # of contracted basis functions         ...   52
 Highest angular momentum                ...    2
 Maximum contraction depth               ...    6
 Integral package used                   ... LIBINT
 Integral threshhold            Thresh   ...  2.500e-11
 Primitive cut-off              TCut     ...  2.500e-12


------------------------------ INTEGRAL EVALUATION ----------------------------


 * One electron integrals 
 Pre-screening matrix                    ... done
 Shell pair data                         ... done (   0.000 sec)

-------------------------------------------------------------------------------
                                 ORCA SCF
-------------------------------------------------------------------------------

------------
SCF SETTINGS
------------
Hamiltonian:
 Density Functional     Method          .... DFT(GTOs)
 Exchange Functional    Exchange        .... B88
   X-Alpha parameter    XAlpha          ....  0.666667
   Becke's b parameter  XBeta           ....  0.004200
 Correlation Functional Correlation     .... LYP
 LDA part of GGA corr.  LDAOpt          .... VWN-5
 Gradients option       PostSCFGGA      .... off
 Hybrid DFT is turned on
   Fraction HF Exchange ScalHFX         ....  0.200000
   Scaling of DF-GGA-X  ScalDFX         ....  0.720000
   Scaling of DF-GGA-C  ScalDFC         ....  0.810000
   Scaling of DF-LDA-C  ScalLDAC        ....  1.000000
   Perturbative correction              ....  0.000000
   NL short-range parameter             ....  4.800000


General Settings:
 Integral files         IntName         .... 5MnO+/32523463
 Hartree-Fock type      HFTyp           .... UHF
 Total Charge           Charge          ....    1
 Multiplicity           Mult            ....    5
 Number of Electrons    NEL             ....   32
 Basis Dimension        Dim             ....   52
 Nuclear Repulsion      ENuc            ....     61.2297820356 Eh

Convergence Acceleration:
 DIIS                   CNVDIIS         .... on
   Start iteration      DIISMaxIt       ....    12
   Startup error        DIISStart       ....  0.200000
   # of expansion vecs  DIISMaxEq       ....     5
   Bias factor          DIISBfac        ....   1.050
   Max. coefficient     DIISMaxC        ....  10.000
 Newton-Raphson         CNVNR           .... off
 SOSCF                  CNVSOSCF        .... off
 Level Shifting         CNVShift        .... on
   Level shift para.    LevelShift      ....    0.2500
   Turn off err/grad.   ShiftErr        ....    0.0010
 Zerner damping         CNVZerner       .... off
 Static damping         CNVDamp         .... on
   Fraction old density DampFac         ....    0.7000
   Max. Damping (<1)    DampMax         ....    0.9800
   Min. Damping (>=0)   DampMin         ....    0.0000
   Turn off err/grad.   DampErr         ....    0.1000
 Fernandez-Rico         CNVRico         .... off

SCF Procedure:
 Maximum # iterations   MaxIter         ....   125
 SCF integral mode      SCFMode         .... Direct
   Integral package                     .... LIBINT
 Reset frequeny         DirectResetFreq ....    20
 Integral Threshold     Thresh          ....  2.500e-11 Eh
 Primitive CutOff       TCut            ....  2.500e-12 Eh

Convergence Tolerance:
 Convergence Check Mode ConvCheckMode   .... Total+1el-Energy
 Convergence forced     ConvForced      .... 0
 Energy Change          TolE            ....  1.000e-08 Eh
 1-El. energy change                    ....  1.000e-05 Eh
 DIIS Error             TolErr          ....  5.000e-07


Diagonalization of the overlap matrix:
Smallest eigenvalue                        ... 9.624e-03
Time for diagonalization                   ...    0.003 sec
Threshold for overlap eigenvalues          ... 1.000e-08
Number of eigenvalues below threshold      ... 0
Time for construction of square roots      ...    0.005 sec
Total time needed                          ...    0.008 sec

-------------------
DFT GRID GENERATION
-------------------

General Integration Accuracy     IntAcc      ...  4.340
Radial Grid Type                 RadialGrid  ... Gauss-Chebyshev
Angular Grid (max. acc.)         AngularGrid ... Lebedev-110
Angular grid pruning method      GridPruning ... 3 (G Style)
Weight generation scheme         WeightScheme... Becke
Basis function cutoff            BFCut       ...    1.0000e-11
Integration weight cutoff        WCut        ...    1.0000e-14
Grids for H and He will be reduced by one unit

# of grid points (after initial pruning)     ...   4628 (   0.0 sec)
# of grid points (after weights+screening)   ...   4602 (   0.0 sec)
nearest neighbour list constructed           ...    0.0 sec
Grid point re-assignment to atoms done       ...    0.0 sec
Grid point division into batches done        ...    0.0 sec
Reduced shell lists constructed in    0.1 sec

Total number of grid points                  ...     4602
Total number of batches                      ...       73
Average number of points per batch           ...       63
Average number of grid points per atom       ...     2301
Average number of shells per batch           ...    14.99 (62.44%)
Average number of basis functions per batch  ...    35.04 (67.39%)
Average number of large shells per batch     ...    13.20 (88.10%)
Average number of large basis fcns per batch ...    30.61 (87.35%)
Maximum spatial batch extension              ...  20.53, 30.38, 28.73 au
Average spatial batch extension              ...   5.90,  7.00,  6.75 au

Time for grid setup =    0.067 sec

------------------------------
INITIAL GUESS: MODEL POTENTIAL
------------------------------
Loading Hartree-Fock densities                     ... done
Calculating cut-offs                               ... done
Setting up the integral package                    ... done
Initializing the effective Hamiltonian             ... done
Starting the Coulomb interaction                   ... done (   0.0 sec)
Reading the grid                                   ... done
Mapping shells                                     ... done
Starting the XC term evaluation                    ... done (   0.0 sec)
  promolecular density results
     # of electrons  =     32.999809126
     EX              =    -58.967721105
     EC              =     -1.416555237
     EX+EC           =    -60.384276342
Transforming the Hamiltonian                       ... done (   0.0 sec)
Diagonalizing the Hamiltonian                      ... done (   0.0 sec)
Back transforming the eigenvectors                 ... done (   0.0 sec)
Now organizing SCF variables                       ... done
                      ------------------
                      INITIAL GUESS DONE (   0.2 sec)
                      ------------------
--------------
SCF ITERATIONS
--------------
ITER       Energy         Delta-E        Max-DP      RMS-DP      [F,P]     Damp
               ***  Starting incremental Fock matrix formation  ***
  0  -1224.8827920090   0.000000000000 0.41876622  0.00940314  0.5357110 0.7000
  1  -1225.0336635339  -0.150871524880 0.03868125  0.00239681  0.2767433 0.7000
                               ***Turning on DIIS***
  2  -1225.2669494639  -0.233285929994 0.07808083  0.00457130  0.0916487 0.0000
  3  -1225.4800396277  -0.213090163772 0.02467727  0.00054879  0.3931697 0.7000
  4  -1225.5219001772  -0.041860549580 0.03153391  0.00070547  0.3565713 0.7000
  5  -1225.5688988179  -0.046998640695 0.03318230  0.00072505  0.3047371 0.7000
  6  -1225.6072382668  -0.038339448906 0.03389750  0.00070583  0.2509269 0.7000
  7  -1225.6337097873  -0.026471520467 0.03370174  0.00076687  0.2053680 0.7000
  8  -1225.6561246957  -0.022414908437 0.02699058  0.00068264  0.1550678 0.7000
  9  -1225.6712611327  -0.015136436989 0.02132133  0.00060622  0.1094039 0.7000
 10  -1225.6812505567  -0.009989423925 0.05517191  0.00179334  0.0732041 0.0000
 11  -1225.7039573011  -0.022706744436 0.00884546  0.00050003  0.0162160 0.0000
 12  -1225.7084917050  -0.004534403913 0.00963040  0.00054863  0.0102631 0.0000
 13  -1225.7128840814  -0.004392376436 0.01132649  0.00065317  0.0074076 0.0000
 14  -1225.7171104488  -0.004226367317 0.00919286  0.00049629  0.0055156 0.0000
 15  -1225.7193259410  -0.002215492237 0.00763244  0.00029515  0.0044134 0.0000
 16  -1225.7202003121  -0.000874371126 0.01304461  0.00040760  0.0026667 0.0000
 17  -1225.7208435554  -0.000643243267 0.00628359  0.00015901  0.0021785 0.0000
 18  -1225.7209486829  -0.000105127564 0.00549074  0.00012056  0.0014095 0.0000
 19  -1225.7209769854  -0.000028302460 0.00473744  0.00009227  0.0009880 0.0000
               *** Restarting incremental Fock matrix formation ***
                                   *** Resetting DIIS ***
 20  -1225.7209818114  -0.000004826017 0.00083820  0.00002425  0.0004865 0.0000
 21  -1225.7209805016   0.000001309777 0.00062413  0.00001816  0.0009691 0.0000
 22  -1225.7209830783  -0.000002576632 0.00044659  0.00000855  0.0002993 0.0000
 23  -1225.7209832879  -0.000000209666 0.00004795  0.00000326  0.0001357 0.0000
 24  -1225.7209833474  -0.000000059452 0.00003418  0.00000164  0.0000205 0.0000
 25  -1225.7209833603  -0.000000012928 0.00003277  0.00000129  0.0000205 0.0000
                 **** Energy Check signals convergence ****

               *****************************************************
               *                     SUCCESS                       *
               *           SCF CONVERGED AFTER  26 CYCLES          *
               *****************************************************

Setting up the final grid:

General Integration Accuracy     IntAcc      ...  4.670
Radial Grid Type                 RadialGrid  ... Gauss-Chebyshev
Angular Grid (max. acc.)         AngularGrid ... Lebedev-302
Angular grid pruning method      GridPruning ... 3 (G Style)
Weight generation scheme         WeightScheme... Becke
Basis function cutoff            BFCut       ...    1.0000e-11
Integration weight cutoff        WCut        ...    1.0000e-14
Grids for H and He will be reduced by one unit

# of grid points (after initial pruning)     ...  15876 (   0.0 sec)
# of grid points (after weights+screening)   ...  15835 (   0.0 sec)
nearest neighbour list constructed           ...    0.0 sec
Grid point re-assignment to atoms done       ...    0.0 sec
Grid point division into batches done        ...    0.1 sec
Reduced shell lists constructed in    0.2 sec

Total number of grid points                  ...    15835
Total number of batches                      ...      249
Average number of points per batch           ...       63
Average number of grid points per atom       ...     7918
Average number of shells per batch           ...    13.50 (56.25%)
Average number of basis functions per batch  ...    31.28 (60.15%)
Average number of large shells per batch     ...    11.53 (85.42%)
Average number of large basis fcns per batch ...    26.62 (85.11%)
Maximum spatial batch extension              ...  22.00, 28.57, 28.57 au
Average spatial batch extension              ...   3.83,  4.32,  4.23 au

Final grid set up in    0.2 sec
Final integration                            ... done (   0.2 sec)
Change in XC energy                          ...    -0.000015142
Integrated number of electrons               ...    32.000010309
Previous integrated no of electrons          ...    32.000222555

----------------
TOTAL SCF ENERGY
----------------

Total Energy       :        -1225.72099851 Eh          -33353.56403 eV

Components:
Nuclear Repulsion  :           61.22978204 Eh            1666.14707 eV
Electronic Energy  :        -1286.95078055 Eh          -35019.71111 eV
One Electron Energy:        -1802.63887207 Eh          -49052.29748 eV
Two Electron Energy:          515.68809152 Eh           14032.58637 eV

Virial components:
Potential Energy   :        -2450.57210440 Eh          -66683.45708 eV
Kinetic Energy     :         1224.85110589 Eh           33329.89305 eV
Virial Ratio       :            2.00071020


DFT components:
N(Alpha)           :       18.000003946048 electrons
N(Beta)            :       14.000006362823 electrons
N(Total)           :       32.000010308871 electrons
E(X)               :      -47.011957190535 Eh       
E(C)               :       -1.594040129574 Eh       
E(XC)              :      -48.605997320109 Eh       

---------------
SCF CONVERGENCE
---------------

  Last Energy change         ...   -8.5136e-09  Tolerance :   1.0000e-08
  Last MAX-Density change    ...    3.7565e-05  Tolerance :   1.0000e-07
  Last RMS-Density change    ...    1.4176e-06  Tolerance :   5.0000e-09
  Last DIIS Error            ...    2.0546e-05  Tolerance :   5.0000e-07

             **** THE GBW FILE WAS UPDATED (5MnO+/32523463.gbw) ****
             **** DENSITY FILE WAS UPDATED (5MnO+/32523463.scfp.tmp) ****
             **** ENERGY FILE WAS UPDATED (5MnO+/32523463.en.tmp) ****
----------------------
UHF SPIN CONTAMINATION
----------------------

Warning: in a DFT calculation there is little theoretical justification to 
         calculate <S**2> as in Hartree-Fock theory. We will do it anyways
         but you should keep in mind that the values have only limited relevance

Expectation value of <S**2>     :     6.763369
Ideal value S*(S+1) for S=2.0   :     6.000000
Deviation                       :     0.763369

----------------
ORBITAL ENERGIES
----------------
                 SPIN UP ORBITALS
  NO   OCC          E(Eh)            E(eV) 
   0   1.0000    -235.773260     -6415.7166 
   1   1.0000     -27.631144      -751.8817 
   2   1.0000     -23.717602      -645.3888 
   3   1.0000     -23.714011      -645.2911 
   4   1.0000     -23.709684      -645.1733 
   5   1.0000     -19.376109      -527.2507 
   6   1.0000      -3.578566       -97.3777 
   7   1.0000      -2.451227       -66.7013 
   8   1.0000      -2.445203       -66.5374 
   9   1.0000      -2.443409       -66.4885 
  10   1.0000      -1.119565       -30.4649 
  11   1.0000      -0.658147       -17.9091 
  12   1.0000      -0.652809       -17.7638 
  13   1.0000      -0.645910       -17.5761 
  14   1.0000      -0.642077       -17.4718 
  15   1.0000      -0.641417       -17.4538 
  16   1.0000      -0.512426       -13.9438 
  17   1.0000      -0.510701       -13.8969 
  18   0.0000      -0.376001       -10.2315 
  19   0.0000      -0.332866        -9.0578 
  20   0.0000      -0.074717        -2.0332 
  21   0.0000       0.398870        10.8538 
  22   0.0000       0.459173        12.4947 
  23   0.0000       0.475217        12.9313 
  24   0.0000       0.647259        17.6128 
  25   0.0000       0.651591        17.7307 
  26   0.0000       0.669231        18.2107 
  27   0.0000       0.694528        18.8991 
  28   0.0000       0.694630        18.9018 
  29   0.0000       0.833970        22.6935 
  30   0.0000       0.834355        22.7040 
  31   0.0000       0.945679        25.7332 
  32   0.0000       1.229473        33.4557 
  33   0.0000       2.045436        55.6591 
  34   0.0000       4.508303       122.6772 
  35   0.0000       4.539173       123.5172 
  36   0.0000       4.625179       125.8575 
  37   0.0000       4.760227       129.5324 
  38   0.0000       4.760430       129.5379 
  39   0.0000       4.803427       130.7079 
  40   0.0000       4.806129       130.7814 
  41   0.0000       4.854818       132.1063 
  42   0.0000       6.460918       175.8105 
  43   0.0000       6.467876       175.9999 
  44   0.0000       6.870349       186.9517 
  45   0.0000      22.828889       621.2057 
  46   0.0000      30.070577       818.2620 
  47   0.0000      30.076330       818.4185 
  48   0.0000      30.368419       826.3667 
  49   0.0000      49.409958      1344.5133 
  50   0.0000     133.628902      3636.2273 
  51   0.0000     712.908097     19399.2156 

                 SPIN DOWN ORBITALS
  NO   OCC          E(Eh)            E(eV) 
   0   1.0000    -235.772902     -6415.7068 
   1   1.0000     -27.550704      -749.6928 
   2   1.0000     -23.650154      -643.5534 
   3   1.0000     -23.648357      -643.5045 
   4   1.0000     -23.645207      -643.4188 
   5   1.0000     -19.395104      -527.7676 
   6   1.0000      -3.373325       -91.7928 
   7   1.0000      -2.236007       -60.8449 
   8   1.0000      -2.232329       -60.7448 
   9   1.0000      -2.223352       -60.5005 
  10   1.0000      -1.174195       -31.9515 
  11   1.0000      -0.622297       -16.9336 
  12   1.0000      -0.597889       -16.2694 
  13   1.0000      -0.557173       -15.1615 
  14   0.0000      -0.358905        -9.7663 
  15   0.0000      -0.334494        -9.1020 
  16   0.0000      -0.334329        -9.0975 
  17   0.0000      -0.325351        -8.8533 
  18   0.0000      -0.315206        -8.5772 
  19   0.0000      -0.267608        -7.2820 
  20   0.0000      -0.060923        -1.6578 
  21   0.0000       0.436701        11.8832 
  22   0.0000       0.459974        12.5165 
  23   0.0000       0.495977        13.4962 
  24   0.0000       0.650835        17.7101 
  25   0.0000       0.723592        19.6899 
  26   0.0000       0.733132        19.9495 
  27   0.0000       0.805909        21.9299 
  28   0.0000       0.805950        21.9310 
  29   0.0000       0.905823        24.6487 
  30   0.0000       0.916561        24.9409 
  31   0.0000       0.990085        26.9416 
  32   0.0000       1.290347        35.1121 
  33   0.0000       2.161867        58.8274 
  34   0.0000       4.441371       120.8559 
  35   0.0000       4.505458       122.5997 
  36   0.0000       4.603195       125.2593 
  37   0.0000       4.909282       133.5884 
  38   0.0000       4.909492       133.5941 
  39   0.0000       4.942129       134.4822 
  40   0.0000       4.948233       134.6483 
  41   0.0000       4.985689       135.6675 
  42   0.0000       6.601332       179.6314 
  43   0.0000       6.610064       179.8690 
  44   0.0000       6.998103       190.4281 
  45   0.0000      22.946837       624.4152 
  46   0.0000      30.166466       820.8713 
  47   0.0000      30.173773       821.0701 
  48   0.0000      30.460477       828.8717 
  49   0.0000      49.390829      1343.9928 
  50   0.0000     133.672304      3637.4083 
  51   0.0000     712.917082     19399.4601 

                    ********************************
                    * MULLIKEN POPULATION ANALYSIS *
                    ********************************

--------------------------------------------
MULLIKEN ATOMIC CHARGES AND SPIN POPULATIONS
--------------------------------------------
   0 Mn:    1.333294    4.773813
   1 O :   -0.333294   -0.773813
Sum of atomic charges         :    1.0000000
Sum of atomic spin populations:    4.0000000

-----------------------------------------------------
MULLIKEN REDUCED ORBITAL CHARGES AND SPIN POPULATIONS
-----------------------------------------------------
CHARGE
  0 Mns       :     6.413499  s :     6.413499
      pz      :     4.006215  p :    12.023802
      px      :     4.016064
      py      :     4.001522
      dz2     :     1.018208  d :     5.229406
      dxz     :     1.146644
      dyz     :     1.000001
      dx2y2   :     1.062863
      dxy     :     1.001690
  1 O s       :     3.988945  s :     3.988945
      pz      :     1.841122  p :     4.344349
      px      :     1.500420
      py      :     1.002807

SPIN
  0 Mns       :     0.329285  s :     0.329285
      pz      :     0.002376  p :     0.002342
      px      :     0.001882
      py      :    -0.001915
      dz2     :     0.933790  d :     4.442187
      dxz     :     0.862386
      dyz     :     0.999999
      dx2y2   :     0.797025
      dxy     :     0.848986
  1 O s       :     0.000353  s :     0.000353
      pz      :     0.129219  p :    -0.774167
      px      :    -0.062334
      py      :    -0.841052


                     *******************************
                     * LOEWDIN POPULATION ANALYSIS *
                     *******************************

-------------------------------------------
LOEWDIN ATOMIC CHARGES AND SPIN POPULATIONS
-------------------------------------------
   0 Mn:    1.300824    4.739686
   1 O :   -0.300824   -0.739686

----------------------------------------------------
LOEWDIN REDUCED ORBITAL CHARGES AND SPIN POPULATIONS
----------------------------------------------------
CHARGE
  0 Mns       :     6.411883  s :     6.411883
      pz      :     4.004958  p :    12.014562
      px      :     4.009089
      py      :     4.000514
      dz2     :     1.026684  d :     5.272731
      dxz     :     1.153814
      dyz     :     1.000001
      dx2y2   :     1.088482
      dxy     :     1.003751
  1 O s       :     3.909036  s :     3.909036
      pz      :     1.835209  p :     4.391788
      px      :     1.554825
      py      :     1.001754

SPIN
  0 Mns       :     0.307503  s :     0.307503
      pz      :     0.002176  p :     0.000733
      px      :     0.000511
      py      :    -0.001953
      dz2     :     0.933457  d :     4.431449
      dxz     :     0.860671
      dyz     :     0.999999
      dx2y2   :     0.796069
      dxy     :     0.841253
  1 O s       :     0.004437  s :     0.004437
      pz      :     0.131135  p :    -0.744123
      px      :    -0.041977
      py      :    -0.833281


                      *****************************
                      * MAYER POPULATION ANALYSIS *
                      *****************************

  NA   - Mulliken gross atomic population
  ZA   - Total nuclear charge
  QA   - Mulliken gross atomic charge
  VA   - Mayer's total valence
  BVA  - Mayer's bonded valence
  FA   - Mayer's free valence

  ATOM       NA         ZA         QA         VA         BVA        FA
  0 Mn    23.6667    25.0000     1.3333     5.6618     1.3086     4.3532
  1 O      8.3333     8.0000    -0.3333     2.0505     1.3086     0.7419

  Mayer bond orders larger than 0.1
B(  0-Mn,  1-O ) :   1.3086 

-------
TIMINGS
-------

Total SCF time: 0 days 0 hours 0 min 11 sec 

Total time                  ....      11.640 sec
Sum of individual times     ....      11.290 sec  ( 97.0%)

Fock matrix formation       ....      10.616 sec  ( 91.2%)
  XC integration            ....       2.935 sec  ( 27.6% of F)
    Basis function eval.    ....       0.411 sec  ( 14.0% of XC)
    Density eval.           ....       0.265 sec  (  9.0% of XC)
    XC-Functional eval.     ....       0.347 sec  ( 11.8% of XC)
    XC-Potential eval.      ....       0.251 sec  (  8.5% of XC)
Diagonalization             ....       0.086 sec  (  0.7%)
Density matrix formation    ....       0.002 sec  (  0.0%)
Population analysis         ....       0.024 sec  (  0.2%)
Initial guess               ....       0.157 sec  (  1.4%)
Orbital Transformation      ....       0.000 sec  (  0.0%)
Orbital Orthonormalization  ....       0.000 sec  (  0.0%)
DIIS solution               ....       0.115 sec  (  1.0%)
Grid generation             ....       0.291 sec  (  2.5%)

-------------------------   --------------------
FINAL SINGLE POINT ENERGY     -1225.720998511003
-------------------------   --------------------

------------------------------------------------------------------------------
                         ORCA SCF GRADIENT CALCULATION
------------------------------------------------------------------------------

Gradient of the Kohn-Sham DFT energy:
Kohn-Sham wavefunction type      ... UKS
Hartree-Fock exchange scaling    ...    0.200
Number of operators              ...    2
Number of atoms                  ...    2
Basis set dimensions             ...   52
Integral neglect threshold       ... 2.5e-11
Integral primitive cutoff        ... 2.5e-12

Nuclear repulsion gradient       ... done
One Electron Gradient            ... done
Pre-screening matrix             ... done
Starting the two electron gradient:
Two electron gradient done
Exchange-correlation gradient    ... done

------------------
CARTESIAN GRADIENT
------------------

   1   Mn  :    0.008909699   -0.000000000   -0.000000000
   2   O   :   -0.008909699    0.000000000    0.000000000

Difference to translation invariance:
           :    0.0000000000    0.0000000000    0.0000000000

Norm of the cartesian gradient     ...    0.0126002174
RMS gradient                       ...    0.0051440172
MAX gradient                       ...    0.0089096992

-------
TIMINGS
-------

Total SCF gradient time            ...        0.641 sec

One electron gradient       ....       0.003 sec  (  0.4%)
Prescreening matrices       ....       0.055 sec  (  8.6%)
Two electron gradient       ....       0.175 sec  ( 27.3%)
XC gradient                 ....       0.234 sec  ( 36.6%)
------------------------------------------------------------------------------
                         ORCA GEOMETRY RELAXATION STEP
------------------------------------------------------------------------------

Reading the OPT-File                    .... done
Getting information on internals        .... done
Copying old internal coords+grads       .... done
Making the new internal coordinates     .... (new redundants).... done
Validating the new internal coordinates .... (new redundants).... done
Calculating the B-matrix                .... done
Calculating the G,G- and P matrices     .... done
Transforming gradient to internals      .... done
Projecting the internal gradient        .... done
Number of atoms                         ....   2
Number of internal coordinates          ....   1
Current Energy                          .... -1225.720998511 Eh
Current gradient norm                   ....     0.012600217 Eh/bohr
Maximum allowed component of the step   ....  0.300
Current trust radius                    ....  0.300
Evaluating the initial hessian          ....  (Almloef) done
Projecting the Hessian                  .... done
Forming the augmented Hessian           .... done
Diagonalizing the augmented Hessian     .... done
Last element of RFO vector              ....  0.999985115
Lowest eigenvalues of augmented Hessian:
 -0.000048614
Length of the computed step             ....  0.005456307
The final length of the internal step   ....  0.005456307
Converting the step to cartesian space:
 Initial RMS(Int)=    0.0054563074
Transforming coordinates:
 Iter   0:  RMS(Cart)=    0.0015751003 RMS(Int)=    0.0054563074
 Iter   1:  RMS(Cart)=    0.0000000000 RMS(Int)=    0.0000000000
done
Storing new coordinates                 .... done

                                .--------------------.
          ----------------------|Geometry convergence|-------------------------
          Item                value                   Tolerance       Converged
          ---------------------------------------------------------------------
          RMS gradient        0.0089096992            0.0000300000      NO
          MAX gradient        0.0089096992            0.0001000000      NO
          RMS step            0.0054563074            0.0006000000      NO
          MAX step            0.0054563074            0.0010000000      NO
          ........................................................
          Max(Bonds)      0.0029      Max(Angles)    0.00
          Max(Dihed)        0.00      Max(Improp)    0.00
          ---------------------------------------------------------------------

The optimization has not yet converged - more geometry cycles are needed


    ---------------------------------------------------------------------------
                         Redundant Internal Coordinates
                            (Angstroem and degrees)

        Definition                    Value    dE/dq     Step     New-Value
    ----------------------------------------------------------------------------
     1. B(O   1,Mn  0)                1.7285 -0.008910  0.0029    1.7314   
    ----------------------------------------------------------------------------

         *************************************************************
         *                GEOMETRY OPTIMIZATION CYCLE   2            *
         *************************************************************
---------------------------------
CARTESIAN COORDINATES (ANGSTROEM)
---------------------------------
  Mn    -0.000642    0.000000    0.000000
  O      1.730741    0.000000    0.000000

----------------------------
CARTESIAN COORDINATES (A.U.)
----------------------------
  NO LB      ZA    FRAG     MASS         X           Y           Z
   0 Mn   25.0000    0    54.940   -0.001213    0.000000    0.000000
   1 O     8.0000    0    15.999    3.270627    0.000000    0.000000

--------------------------------
INTERNAL COORDINATES (ANGSTROEM)
--------------------------------
 Mn     0   0   0     0.000000000000     0.00000000     0.00000000
 O      1   0   0     1.731383489568     0.00000000     0.00000000

---------------------------
INTERNAL COORDINATES (A.U.)
---------------------------
 Mn     0   0   0     0.000000000000     0.00000000     0.00000000
 O      1   0   0     3.271840628076     0.00000000     0.00000000


Diagonalization of the overlap matrix:
Smallest eigenvalue                        ... 9.624e-03
Time for diagonalization                   ...    0.003 sec
Threshold for overlap eigenvalues          ... 1.000e-08
Number of eigenvalues below threshold      ... 0
Time for construction of square roots      ...    0.006 sec
Total time needed                          ...    0.008 sec

-------------------
DFT GRID GENERATION
-------------------

General Integration Accuracy     IntAcc      ...  4.340
Radial Grid Type                 RadialGrid  ... Gauss-Chebyshev
Angular Grid (max. acc.)         AngularGrid ... Lebedev-110
Angular grid pruning method      GridPruning ... 3 (G Style)
Weight generation scheme         WeightScheme... Becke
Basis function cutoff            BFCut       ...    1.0000e-11
Integration weight cutoff        WCut        ...    1.0000e-14
Grids for H and He will be reduced by one unit

# of grid points (after initial pruning)     ...   4628 (   0.0 sec)
# of grid points (after weights+screening)   ...   4602 (   0.0 sec)
nearest neighbour list constructed           ...    0.0 sec
Grid point re-assignment to atoms done       ...    0.0 sec
Grid point division into batches done        ...    0.0 sec
Reduced shell lists constructed in    0.0 sec

Total number of grid points                  ...     4602
Total number of batches                      ...       73
Average number of points per batch           ...       63
Average number of grid points per atom       ...     2301
Average number of shells per batch           ...    14.95 (62.27%)
Average number of basis functions per batch  ...    35.00 (67.31%)
Average number of large shells per batch     ...    13.20 (88.34%)
Average number of large basis fcns per batch ...    30.61 (87.45%)
Maximum spatial batch extension              ...  20.52, 30.38, 28.73 au
Average spatial batch extension              ...   5.90,  7.00,  6.76 au

Time for grid setup =    0.058 sec

--------------
SCF ITERATIONS
--------------
ITER       Energy         Delta-E        Max-DP      RMS-DP      [F,P]     Damp
               ***  Starting incremental Fock matrix formation  ***
  0  -1225.7210241413   0.000000000000 0.00008805  0.00000476  0.0007328 0.7000
  1  -1225.7210246876  -0.000000546297 0.00007818  0.00000452  0.0004320 0.7000
                               ***Turning on DIIS***
  2  -1225.7210251593  -0.000000471684 0.00035400  0.00001635  0.0002623 0.0000
  3  -1225.7210267302  -0.000001570983 0.00039667  0.00001016  0.0001455 0.0000
  4  -1225.7210266857   0.000000044591 0.00017271  0.00000478  0.0003342 0.0000
  5  -1225.7210269630  -0.000000277367 0.00006616  0.00000274  0.0000235 0.0000
  6  -1225.7210269931  -0.000000030045 0.00009069  0.00000223  0.0000208 0.0000
  7  -1225.7210270060  -0.000000012929 0.00002592  0.00000105  0.0000208 0.0000
  8  -1225.7210270130  -0.000000006981 0.00003660  0.00000141  0.0000209 0.0000
  9  -1225.7210270221  -0.000000009154 0.00003737  0.00000139  0.0000209 0.0000
 10  -1225.7210270313  -0.000000009207 0.00002764  0.00000102  0.0000210 0.0000
 11  -1225.7210270382  -0.000000006868 0.00001620  0.00000060  0.0000210 0.0000
 12  -1225.7210270421  -0.000000003885 0.00001943  0.00000072  0.0000210 0.0000
 13  -1225.7210270469  -0.000000004799 0.00000272  0.00000011  0.0000210 0.0000
 14  -1225.7210270460   0.000000000862 0.00001923  0.00000071  0.0000210 0.0000
 15  -1225.7210270507  -0.000000004679 0.00002036  0.00000076  0.0000210 0.0000
 16  -1225.7210270558  -0.000000005120 0.00001624  0.00000060  0.0000211 0.0000
 17  -1225.7210270597  -0.000000003903 0.00001987  0.00000074  0.0000211 0.0000
 18  -1225.7210270647  -0.000000004989 0.00001263  0.00000047  0.0000211 0.0000
 19  -1225.7210270678  -0.000000003041 0.00002182  0.00000081  0.0000211 0.0000
               *** Restarting incremental Fock matrix formation ***
                                   *** Resetting DIIS ***
 20  -1225.7210270732  -0.000000005389 0.00003435  0.00000127  0.0000212 0.0000
 21  -1225.7210270816  -0.000000008450 0.00001442  0.00000054  0.0000212 0.0000
 22  -1225.7210270854  -0.000000003773 0.00002152  0.00000080  0.0000212 0.0000
 23  -1225.7210270906  -0.000000005261 0.00002086  0.00000077  0.0000212 0.0000
 24  -1225.7210270959  -0.000000005292 0.00001647  0.00000061  0.0000213 0.0000
 25  -1225.7210271000  -0.000000004118 0.00002401  0.00000089  0.0000213 0.0000
 26  -1225.7210271061  -0.000000006067 0.00002333  0.00000086  0.0000213 0.0000
 27  -1225.7210271119  -0.000000005781 0.00001476  0.00000055  0.0000213 0.0000
 28  -1225.7210271157  -0.000000003787 0.00000648  0.00000024  0.0000214 0.0000
 29  -1225.7210271171  -0.000000001458 0.00001292  0.00000048  0.0000214 0.0000
 30  -1225.7210271205  -0.000000003390 0.00001884  0.00000070  0.0000214 0.0000
 31  -1225.7210271252  -0.000000004636 0.00001942  0.00000072  0.0000214 0.0000
 32  -1225.7210271301  -0.000000004962 0.00001808  0.00000067  0.0000214 0.0000
 33  -1225.7210271346  -0.000000004454 0.00001734  0.00000064  0.0000214 0.0000
 34  -1225.7210271391  -0.000000004470 0.00001586  0.00000059  0.0000215 0.0000
 35  -1225.7210271429  -0.000000003895 0.00001539  0.00000057  0.0000215 0.0000
 36  -1225.7210271469  -0.000000003989 0.00001589  0.00000059  0.0000215 0.0000
 37  -1225.7210271508  -0.000000003894 0.00001624  0.00000060  0.0000215 0.0000
 38  -1225.7210271550  -0.000000004215 0.00001718  0.00000064  0.0000215 0.0000
 39  -1225.7210271593  -0.000000004257 0.00001720  0.00000064  0.0000216 0.0000
               *** Restarting incremental Fock matrix formation ***
                                   *** Resetting DIIS ***
 40  -1225.7210271636  -0.000000004318 0.00003502  0.00000130  0.0000216 0.0000
 41  -1225.7210271724  -0.000000008763 0.00001280  0.00000049  0.0000216 0.0000
 42  -1225.7210271758  -0.000000003432 0.00002560  0.00000095  0.0000216 0.0000
 43  -1225.7210271823  -0.000000006453 0.00002258  0.00000084  0.0000217 0.0000
 44  -1225.7210271881  -0.000000005835 0.00001650  0.00000061  0.0000217 0.0000
 45  -1225.7210271922  -0.000000004144 0.00002470  0.00000092  0.0000217 0.0000
 46  -1225.7210271986  -0.000000006327 0.00002301  0.00000085  0.0000217 0.0000
 47  -1225.7210272044  -0.000000005841 0.00001406  0.00000052  0.0000218 0.0000
 48  -1225.7210272081  -0.000000003684 0.00000619  0.00000023  0.0000218 0.0000
 49  -1225.7210272095  -0.000000001404 0.00001415  0.00000053  0.0000218 0.0000
 50  -1225.7210272133  -0.000000003761 0.00001957  0.00000072  0.0000218 0.0000
 51  -1225.7210272182  -0.000000004929 0.00001982  0.00000074  0.0000218 0.0000
 52  -1225.7210272233  -0.000000005159 0.00001843  0.00000068  0.0000218 0.0000
 53  -1225.7210272280  -0.000000004626 0.00001756  0.00000065  0.0000219 0.0000
 54  -1225.7210272326  -0.000000004615 0.00001588  0.00000059  0.0000219 0.0000
 55  -1225.7210272365  -0.000000003959 0.00001568  0.00000058  0.0000219 0.0000
 56  -1225.7210272407  -0.000000004160 0.00001629  0.00000060  0.0000219 0.0000
 57  -1225.7210272448  -0.000000004071 0.00001671  0.00000062  0.0000219 0.0000
 58  -1225.7210272492  -0.000000004419 0.00001763  0.00000065  0.0000220 0.0000
 59  -1225.7210272537  -0.000000004461 0.00001754  0.00000065  0.0000220 0.0000
               *** Restarting incremental Fock matrix formation ***
                                   *** Resetting DIIS ***
 60  -1225.7210272583  -0.000000004633 0.00003569  0.00000132  0.0000220 0.0000
 61  -1225.7210272674  -0.000000009079 0.00001306  0.00000050  0.0000220 0.0000
 62  -1225.7210272710  -0.000000003580 0.00002608  0.00000097  0.0000221 0.0000
 63  -1225.7210272777  -0.000000006728 0.00002305  0.00000086  0.0000221 0.0000
 64  -1225.7210272837  -0.000000006052 0.00001691  0.00000063  0.0000221 0.0000
 65  -1225.7210272881  -0.000000004346 0.00002521  0.00000093  0.0000221 0.0000
 66  -1225.7210272947  -0.000000006603 0.00002351  0.00000087  0.0000222 0.0000
 67  -1225.7210273008  -0.000000006075 0.00001439  0.00000054  0.0000222 0.0000
 68  -1225.7210273046  -0.000000003841 0.00000628  0.00000024  0.0000222 0.0000
 69  -1225.7210273061  -0.000000001456 0.00001441  0.00000054  0.0000222 0.0000
 70  -1225.7210273099  -0.000000003882 0.00001995  0.00000074  0.0000222 0.0000
 71  -1225.7210273151  -0.000000005147 0.00002022  0.00000075  0.0000223 0.0000
 72  -1225.7210273204  -0.000000005356 0.00001881  0.00000070  0.0000223 0.0000
 73  -1225.7210273253  -0.000000004851 0.00001794  0.00000067  0.0000223 0.0000
 74  -1225.7210273301  -0.000000004801 0.00001621  0.00000060  0.0000223 0.0000
 75  -1225.7210273342  -0.000000004156 0.00001599  0.00000060  0.0000223 0.0000
 76  -1225.7210273386  -0.000000004322 0.00001661  0.00000062  0.0000224 0.0000
 77  -1225.7210273428  -0.000000004263 0.00001704  0.00000063  0.0000224 0.0000
 78  -1225.7210273474  -0.000000004592 0.00001798  0.00000067  0.0000224 0.0000
 79  -1225.7210273521  -0.000000004641 0.00001789  0.00000067  0.0000224 0.0000
               *** Restarting incremental Fock matrix formation ***
                                   *** Resetting DIIS ***
 80  -1225.7210273569  -0.000000004792 0.00003638  0.00000135  0.0000224 0.0000
 81  -1225.7210273663  -0.000000009468 0.00001330  0.00000051  0.0000225 0.0000
 82  -1225.7210273700  -0.000000003688 0.00002660  0.00000099  0.0000225 0.0000
 83  -1225.7210273770  -0.000000006987 0.00002354  0.00000087  0.0000225 0.0000
 84  -1225.7210273833  -0.000000006312 0.00001731  0.00000064  0.0000226 0.0000
 85  -1225.7210273879  -0.000000004547 0.00002572  0.00000095  0.0000226 0.0000
 86  -1225.7210273947  -0.000000006869 0.00002400  0.00000089  0.0000226 0.0000
 87  -1225.7210274011  -0.000000006333 0.00001471  0.00000055  0.0000226 0.0000
 88  -1225.7210274051  -0.000000004005 0.00000637  0.00000024  0.0000226 0.0000
 89  -1225.7210274066  -0.000000001507 0.00001467  0.00000055  0.0000227 0.0000
 90  -1225.7210274106  -0.000000004034 0.00002034  0.00000075  0.0000227 0.0000
 91  -1225.7210274160  -0.000000005357 0.00002063  0.00000077  0.0000227 0.0000
 92  -1225.7210274215  -0.000000005587 0.00001920  0.00000071  0.0000227 0.0000
 93  -1225.7210274266  -0.000000005057 0.00001832  0.00000068  0.0000227 0.0000
 94  -1225.7210274316  -0.000000004997 0.00001655  0.00000061  0.0000228 0.0000
 95  -1225.7210274359  -0.000000004333 0.00001630  0.00000061  0.0000228 0.0000
 96  -1225.7210274404  -0.000000004469 0.00001694  0.00000063  0.0000228 0.0000
 97  -1225.7210274448  -0.000000004442 0.00001738  0.00000065  0.0000228 0.0000
 98  -1225.7210274496  -0.000000004769 0.00001835  0.00000068  0.0000228 0.0000
 99  -1225.7210274544  -0.000000004824 0.00001825  0.00000068  0.0000229 0.0000
               *** Restarting incremental Fock matrix formation ***
                                   *** Resetting DIIS ***
100  -1225.7210274595  -0.000000005025 0.00003707  0.00000138  0.0000229 0.0000
101  -1225.7210274693  -0.000000009852 0.00001354  0.00000052  0.0000229 0.0000
102  -1225.7210274731  -0.000000003822 0.00002713  0.00000101  0.0000229 0.0000
103  -1225.7210274804  -0.000000007263 0.00002403  0.00000089  0.0000230 0.0000
104  -1225.7210274870  -0.000000006574 0.00001773  0.00000066  0.0000230 0.0000
105  -1225.7210274917  -0.000000004757 0.00002625  0.00000097  0.0000230 0.0000
106  -1225.7210274989  -0.000000007148 0.00002450  0.00000091  0.0000230 0.0000
107  -1225.7210275055  -0.000000006599 0.00001504  0.00000056  0.0000231 0.0000
108  -1225.7210275097  -0.000000004198 0.00000646  0.00000024  0.0000231 0.0000
109  -1225.7210275112  -0.000000001564 0.00001494  0.00000056  0.0000231 0.0000
110  -1225.7210275154  -0.000000004174 0.00002074  0.00000077  0.0000231 0.0000
111  -1225.7210275210  -0.000000005568 0.00002105  0.00000078  0.0000231 0.0000
112  -1225.7210275268  -0.000000005825 0.00001960  0.00000073  0.0000232 0.0000
113  -1225.7210275321  -0.000000005272 0.00001871  0.00000070  0.0000232 0.0000
114  -1225.7210275373  -0.000000005186 0.00001688  0.00000063  0.0000232 0.0000
115  -1225.7210275418  -0.000000004513 0.00001662  0.00000062  0.0000232 0.0000
116  -1225.7210275464  -0.000000004652 0.00001728  0.00000064  0.0000232 0.0000
117  -1225.7210275511  -0.000000004633 0.00001772  0.00000066  0.0000233 0.0000
118  -1225.7210275560  -0.000000004965 0.00001872  0.00000069  0.0000233 0.0000
119  -1225.7210275611  -0.000000005037 0.00001862  0.00000069  0.0000233 0.0000
               *** Restarting incremental Fock matrix formation ***
                                   *** Resetting DIIS ***
120  -1225.7210275663  -0.000000005188 0.00003776  0.00000140  0.0000233 0.0000
121  -1225.7210275765  -0.000000010240 0.00001379  0.00000053  0.0000234 0.0000
122  -1225.7210275805  -0.000000003970 0.00002767  0.00000103  0.0000234 0.0000
123  -1225.7210275880  -0.000000007562 0.00002454  0.00000091  0.0000234 0.0000
124  -1225.7210275949  -0.000000006841 0.00001815  0.00000067  0.0000234 0.0000

               *****************************************************
               *                      ERROR                        *
               *        SCF NOT CONVERGED AFTER 125 CYCLES         *
               *****************************************************

Setting up the final grid:

General Integration Accuracy     IntAcc      ...  4.670
Radial Grid Type                 RadialGrid  ... Gauss-Chebyshev
Angular Grid (max. acc.)         AngularGrid ... Lebedev-302
Angular grid pruning method      GridPruning ... 3 (G Style)
Weight generation scheme         WeightScheme... Becke
Basis function cutoff            BFCut       ...    1.0000e-11
Integration weight cutoff        WCut        ...    1.0000e-14
Grids for H and He will be reduced by one unit

# of grid points (after initial pruning)     ...  15876 (   0.0 sec)
# of grid points (after weights+screening)   ...  15835 (   0.0 sec)
nearest neighbour list constructed           ...    0.0 sec
Grid point re-assignment to atoms done       ...    0.0 sec
Grid point division into batches done        ...    0.1 sec
Reduced shell lists constructed in    0.1 sec

Total number of grid points                  ...    15835
Total number of batches                      ...      249
Average number of points per batch           ...       63
Average number of grid points per atom       ...     7918
Average number of shells per batch           ...    13.52 (56.35%)
Average number of basis functions per batch  ...    31.36 (60.32%)
Average number of large shells per batch     ...    11.55 (85.39%)
Average number of large basis fcns per batch ...    26.61 (84.85%)
Maximum spatial batch extension              ...  22.00, 28.57, 28.57 au
Average spatial batch extension              ...   3.83,  4.28,  4.21 au

Final grid set up in    0.2 sec
Final integration                            ... done (   0.2 sec)
Change in XC energy                          ...    -0.000016368
Integrated number of electrons               ...    32.000010018
Previous integrated no of electrons          ...    32.000217233
  Last Energy change         ...   -6.8414e-09  Tolerance :   1.0000e-08
  Last MAX-Density change    ...    1.8154e-05  Tolerance :   1.0000e-07
             **** DENSITY FILE WAS UPDATED (5MnO+/32523463.scfp.tmp) ****
             **** ENERGY FILE WAS UPDATED (5MnO+/32523463.en.tmp) ****

     --------------------------------------------------------------------
                                      WARNING
     The wavefunction IS NOT YET CONVERGED! It shows however signs of
     convergence. Therefore the wavefunction will be stored and can be
     used as input for another calculation. 
     DO NOT USE THIS WAVEFUNCTION  FOR ANYHTING ELSE. It is NOT RELIABLE
     --------------------------------------------------------------------

Total SCF time: 0 days 0 hours 0 min 49 sec 

-------------------------   --------------------
FINAL SINGLE POINT ENERGY     -1225.721043963198   (SCF not fully converged!)
-------------------------   --------------------

------------------------------------------------------------------------------
                         ORCA SCF GRADIENT CALCULATION
------------------------------------------------------------------------------

Gradient of the Kohn-Sham DFT energy:
Kohn-Sham wavefunction type      ... UKS
Hartree-Fock exchange scaling    ...    0.200
Number of operators              ...    2
Number of atoms                  ...    2
Basis set dimensions             ...   52
Integral neglect threshold       ... 2.5e-11
Integral primitive cutoff        ... 2.5e-12

Nuclear repulsion gradient       ... done
One Electron Gradient            ... done
Pre-screening matrix             ... done
Starting the two electron gradient:
Two electron gradient done
Exchange-correlation gradient    ... done

------------------
CARTESIAN GRADIENT
------------------

   1   Mn  :    0.007829711    0.000000000   -0.000000000
   2   O   :   -0.007829711   -0.000000000    0.000000000

Difference to translation invariance:
           :    0.0000000000   -0.0000000000    0.0000000000

Norm of the cartesian gradient     ...    0.0110728837
RMS gradient                       ...    0.0045204858
MAX gradient                       ...    0.0078297112

-------
TIMINGS
-------

Total SCF gradient time            ...        0.643 sec

One electron gradient       ....       0.003 sec  (  0.4%)
Prescreening matrices       ....       0.058 sec  (  9.0%)
Two electron gradient       ....       0.175 sec  ( 27.2%)
XC gradient                 ....       0.236 sec  ( 36.7%)
------------------------------------------------------------------------------
                         ORCA GEOMETRY RELAXATION STEP
------------------------------------------------------------------------------

Reading the OPT-File                    .... done
Getting information on internals        .... done
Copying old internal coords+grads       .... done
Making the new internal coordinates     .... (new redundants).... done
Validating the new internal coordinates .... (new redundants).... done
Calculating the B-matrix                .... done
Calculating the G,G- and P matrices     .... done
Transforming gradient to internals      .... done
Projecting the internal gradient        .... done
Number of atoms                         ....   2
Number of internal coordinates          ....   1
Current Energy                          .... -1225.721043963 Eh
Current gradient norm                   ....     0.011072884 Eh/bohr
Maximum allowed component of the step   ....  0.300
Current trust radius                    ....  0.300
Updating the Hessian (BFGS)             .... done
Forming the augmented Hessian           .... done
Diagonalizing the augmented Hessian     .... done
Last element of RFO vector              ....  0.999220964
Lowest eigenvalues of augmented Hessian:
 -0.000309238
Length of the computed step             ....  0.039495504
The final length of the internal step   ....  0.039495504
Converting the step to cartesian space:
 Initial RMS(Int)=    0.0394955036
Transforming coordinates:
 Iter   0:  RMS(Cart)=    0.0114013698 RMS(Int)=    0.0394955036
 Iter   1:  RMS(Cart)=    0.0000000000 RMS(Int)=    0.0000000000
done
Storing new coordinates                 .... done

                                .--------------------.
          ----------------------|Geometry convergence|-------------------------
          Item                value                   Tolerance       Converged
          ---------------------------------------------------------------------
          Energy change      -0.0000454522            0.0000010000      NO
          RMS gradient        0.0078297112            0.0000300000      NO
          MAX gradient        0.0078297112            0.0001000000      NO
          RMS step            0.0394955036            0.0006000000      NO
          MAX step            0.0394955036            0.0010000000      NO
          ........................................................
          Max(Bonds)      0.0209      Max(Angles)    0.00
          Max(Dihed)        0.00      Max(Improp)    0.00
          ---------------------------------------------------------------------

The optimization has not yet converged - more geometry cycles are needed


    ---------------------------------------------------------------------------
                         Redundant Internal Coordinates
                            (Angstroem and degrees)

        Definition                    Value    dE/dq     Step     New-Value
    ----------------------------------------------------------------------------
     1. B(O   1,Mn  0)                1.7314 -0.007830  0.0209    1.7523   
    ----------------------------------------------------------------------------

         *************************************************************
         *                GEOMETRY OPTIMIZATION CYCLE   3            *
         *************************************************************
---------------------------------
CARTESIAN COORDINATES (ANGSTROEM)
---------------------------------
  Mn    -0.011092    0.000000    0.000000
  O      1.741191    0.000000    0.000000

----------------------------
CARTESIAN COORDINATES (A.U.)
----------------------------
  NO LB      ZA    FRAG     MASS         X           Y           Z
   0 Mn   25.0000    0    54.940   -0.020961    0.000000    0.000000
   1 O     8.0000    0    15.999    3.290375    0.000000    0.000000

--------------------------------
INTERNAL COORDINATES (ANGSTROEM)
--------------------------------
 Mn     0   0   0     0.000000000000     0.00000000     0.00000000
 O      1   0   0     1.752283609916     0.00000000     0.00000000

---------------------------
INTERNAL COORDINATES (A.U.)
---------------------------
 Mn     0   0   0     0.000000000000     0.00000000     0.00000000
 O      1   0   0     3.311336131701     0.00000000     0.00000000


Diagonalization of the overlap matrix:
Smallest eigenvalue                        ... 9.623e-03
Time for diagonalization                   ...    0.003 sec
Threshold for overlap eigenvalues          ... 1.000e-08
Number of eigenvalues below threshold      ... 0
Time for construction of square roots      ...    0.018 sec
Total time needed                          ...    0.021 sec

-------------------
DFT GRID GENERATION
-------------------

General Integration Accuracy     IntAcc      ...  4.340
Radial Grid Type                 RadialGrid  ... Gauss-Chebyshev
Angular Grid (max. acc.)         AngularGrid ... Lebedev-110
Angular grid pruning method      GridPruning ... 3 (G Style)
Weight generation scheme         WeightScheme... Becke
Basis function cutoff            BFCut       ...    1.0000e-11
Integration weight cutoff        WCut        ...    1.0000e-14
Grids for H and He will be reduced by one unit

# of grid points (after initial pruning)     ...   4628 (   0.0 sec)
# of grid points (after weights+screening)   ...   4603 (   0.0 sec)
nearest neighbour list constructed           ...    0.0 sec
Grid point re-assignment to atoms done       ...    0.0 sec
Grid point division into batches done        ...    0.0 sec
Reduced shell lists constructed in    0.0 sec

Total number of grid points                  ...     4603
Total number of batches                      ...       73
Average number of points per batch           ...       63
Average number of grid points per atom       ...     2302
Average number of shells per batch           ...    14.81 (61.71%)
Average number of basis functions per batch  ...    34.62 (66.58%)
Average number of large shells per batch     ...    13.08 (88.32%)
Average number of large basis fcns per batch ...    30.19 (87.20%)
Maximum spatial batch extension              ...  20.48, 30.38, 28.73 au
Average spatial batch extension              ...   5.83,  6.98,  6.77 au

Time for grid setup =    0.052 sec

--------------
SCF ITERATIONS
--------------
ITER       Energy         Delta-E        Max-DP      RMS-DP      [F,P]     Damp
               ***  Starting incremental Fock matrix formation  ***
  0  -1225.7210283802   0.000000000000 0.00062400  0.00003385  0.0052414 0.7000
  1  -1225.7210559236  -0.000027543332 0.00055206  0.00003199  0.0030773 0.7000
                               ***Turning on DIIS***
  2  -1225.7210796364  -0.000023712872 0.00145275  0.00009333  0.0018595 0.0000
  3  -1225.7211530598  -0.000073423363 0.00079628  0.00005666  0.0005386 0.0000
  4  -1225.7211678321  -0.000014772349 0.00116519  0.00002778  0.0002966 0.0000
  5  -1225.7211698522  -0.000002020093 0.00040371  0.00001360  0.0002490 0.0000
  6  -1225.7211704678  -0.000000615538 0.00038183  0.00000780  0.0000388 0.0000
  7  -1225.7211705502  -0.000000082421 0.00014190  0.00000264  0.0000548 0.0000
  8  -1225.7211705682  -0.000000018010 0.00013795  0.00000309  0.0000340 0.0000
  9  -1225.7211705887  -0.000000020489 0.00007099  0.00000220  0.0000244 0.0000
 10  -1225.7211706035  -0.000000014787 0.00004345  0.00000160  0.0000245 0.0000
 11  -1225.7211706159  -0.000000012409 0.00003936  0.00000144  0.0000245 0.0000
 12  -1225.7211706270  -0.000000011104 0.00002910  0.00000106  0.0000246 0.0000
                 **** Energy Check signals convergence ****

               *****************************************************
               *                     SUCCESS                       *
               *           SCF CONVERGED AFTER  13 CYCLES          *
               *****************************************************

Setting up the final grid:

General Integration Accuracy     IntAcc      ...  4.670
Radial Grid Type                 RadialGrid  ... Gauss-Chebyshev
Angular Grid (max. acc.)         AngularGrid ... Lebedev-302
Angular grid pruning method      GridPruning ... 3 (G Style)
Weight generation scheme         WeightScheme... Becke
Basis function cutoff            BFCut       ...    1.0000e-11
Integration weight cutoff        WCut        ...    1.0000e-14
Grids for H and He will be reduced by one unit

# of grid points (after initial pruning)     ...  15876 (   0.0 sec)
# of grid points (after weights+screening)   ...  15835 (   0.0 sec)
nearest neighbour list constructed           ...    0.0 sec
Grid point re-assignment to atoms done       ...    0.0 sec
Grid point division into batches done        ...    0.1 sec
Reduced shell lists constructed in    0.2 sec

Total number of grid points                  ...    15835
Total number of batches                      ...      248
Average number of points per batch           ...       63
Average number of grid points per atom       ...     7918
Average number of shells per batch           ...    13.36 (55.66%)
Average number of basis functions per batch  ...    30.89 (59.41%)
Average number of large shells per batch     ...    11.45 (85.75%)
Average number of large basis fcns per batch ...    26.39 (85.44%)
Maximum spatial batch extension              ...  22.00, 28.57, 28.57 au
Average spatial batch extension              ...   3.83,  4.31,  4.24 au

Final grid set up in    0.2 sec
Final integration                            ... done (   0.1 sec)
Change in XC energy                          ...    -0.000033360
Integrated number of electrons               ...    32.000008040
Previous integrated no of electrons          ...    32.000173154
Total Energy       :        -1225.72120399 Eh          -33353.56962 eV
  Last Energy change         ...   -8.3655e-09  Tolerance :   1.0000e-08
  Last MAX-Density change    ...    2.4964e-05  Tolerance :   1.0000e-07
             **** THE GBW FILE WAS UPDATED (5MnO+/32523463.gbw) ****
             **** DENSITY FILE WAS UPDATED (5MnO+/32523463.scfp.tmp) ****
             **** ENERGY FILE WAS UPDATED (5MnO+/32523463.en.tmp) ****
----------------------
UHF SPIN CONTAMINATION
----------------------

Warning: in a DFT calculation there is little theoretical justification to 
         calculate <S**2> as in Hartree-Fock theory. We will do it anyways
         but you should keep in mind that the values have only limited relevance

Expectation value of <S**2>     :     6.794409
Ideal value S*(S+1) for S=2.0   :     6.000000
Deviation                       :     0.794409

Total SCF time: 0 days 0 hours 0 min 5 sec 

-------------------------   --------------------
FINAL SINGLE POINT ENERGY     -1225.721203994999
-------------------------   --------------------

------------------------------------------------------------------------------
                         ORCA SCF GRADIENT CALCULATION
------------------------------------------------------------------------------

Gradient of the Kohn-Sham DFT energy:
Kohn-Sham wavefunction type      ... UKS
Hartree-Fock exchange scaling    ...    0.200
Number of operators              ...    2
Number of atoms                  ...    2
Basis set dimensions             ...   52
Integral neglect threshold       ... 2.5e-11
Integral primitive cutoff        ... 2.5e-12

Nuclear repulsion gradient       ... done
One Electron Gradient            ... done
Pre-screening matrix             ... done
Starting the two electron gradient:
Two electron gradient done
Exchange-correlation gradient    ... done

------------------
CARTESIAN GRADIENT
------------------

   1   Mn  :    0.000463788    0.000000000   -0.000000000
   2   O   :   -0.000463788   -0.000000000    0.000000000

Difference to translation invariance:
           :    0.0000000000   -0.0000000000   -0.0000000000

Norm of the cartesian gradient     ...    0.0006558948
RMS gradient                       ...    0.0002677679
MAX gradient                       ...    0.0004637877

-------
TIMINGS
-------

Total SCF gradient time            ...        0.624 sec

One electron gradient       ....       0.003 sec  (  0.4%)
Prescreening matrices       ....       0.056 sec  (  8.9%)
Two electron gradient       ....       0.174 sec  ( 27.9%)
XC gradient                 ....       0.236 sec  ( 37.7%)
------------------------------------------------------------------------------
                         ORCA GEOMETRY RELAXATION STEP
------------------------------------------------------------------------------

Reading the OPT-File                    .... done
Getting information on internals        .... done
Copying old internal coords+grads       .... done
Making the new internal coordinates     .... (new redundants).... done
Validating the new internal coordinates .... (new redundants).... done
Calculating the B-matrix                .... done
Calculating the G,G- and P matrices     .... done
Transforming gradient to internals      .... done
Projecting the internal gradient        .... done
Number of atoms                         ....   2
Number of internal coordinates          ....   1
Current Energy                          .... -1225.721203995 Eh
Current gradient norm                   ....     0.000655895 Eh/bohr
Maximum allowed component of the step   ....  0.300
Current trust radius                    ....  0.300
Updating the Hessian (BFGS)             .... done
Forming the augmented Hessian           .... done
Diagonalizing the augmented Hessian     .... done
Last element of RFO vector              ....  0.999996908
Lowest eigenvalues of augmented Hessian:
 -0.000001153
Length of the computed step             ....  0.002486778
The final length of the internal step   ....  0.002486778
Converting the step to cartesian space:
 Initial RMS(Int)=    0.0024867778
Transforming coordinates:
 Iter   0:  RMS(Cart)=    0.0007178709 RMS(Int)=    0.0024867778
 Iter   1:  RMS(Cart)=    0.0000000000 RMS(Int)=    0.0000000000
done
Storing new coordinates                 .... done

                                .--------------------.
          ----------------------|Geometry convergence|-------------------------
          Item                value                   Tolerance       Converged
          ---------------------------------------------------------------------
          Energy change      -0.0001600318            0.0000010000      NO
          RMS gradient        0.0004637877            0.0000300000      NO
          MAX gradient        0.0004637877            0.0001000000      NO
          RMS step            0.0024867778            0.0006000000      NO
          MAX step            0.0024867778            0.0010000000      NO
          ........................................................
          Max(Bonds)      0.0013      Max(Angles)    0.00
          Max(Dihed)        0.00      Max(Improp)    0.00
          ---------------------------------------------------------------------

The optimization has not yet converged - more geometry cycles are needed


    ---------------------------------------------------------------------------
                         Redundant Internal Coordinates
                            (Angstroem and degrees)

        Definition                    Value    dE/dq     Step     New-Value
    ----------------------------------------------------------------------------
     1. B(O   1,Mn  0)                1.7523 -0.000464  0.0013    1.7536   
    ----------------------------------------------------------------------------

         *************************************************************
         *                GEOMETRY OPTIMIZATION CYCLE   4            *
         *************************************************************
---------------------------------
CARTESIAN COORDINATES (ANGSTROEM)
---------------------------------
  Mn    -0.011750    0.000000    0.000000
  O      1.741849    0.000000    0.000000

----------------------------
CARTESIAN COORDINATES (A.U.)
----------------------------
  NO LB      ZA    FRAG     MASS         X           Y           Z
   0 Mn   25.0000    0    54.940   -0.022205    0.000000    0.000000
   1 O     8.0000    0    15.999    3.291618    0.000000    0.000000

--------------------------------
INTERNAL COORDINATES (ANGSTROEM)
--------------------------------
 Mn     0   0   0     0.000000000000     0.00000000     0.00000000
 O      1   0   0     1.753599556058     0.00000000     0.00000000

---------------------------
INTERNAL COORDINATES (A.U.)
---------------------------
 Mn     0   0   0     0.000000000000     0.00000000     0.00000000
 O      1   0   0     3.313822909515     0.00000000     0.00000000


Diagonalization of the overlap matrix:
Smallest eigenvalue                        ... 9.623e-03
Time for diagonalization                   ...    0.003 sec
Threshold for overlap eigenvalues          ... 1.000e-08
Number of eigenvalues below threshold      ... 0
Time for construction of square roots      ...    0.006 sec
Total time needed                          ...    0.010 sec

-------------------
DFT GRID GENERATION
-------------------

General Integration Accuracy     IntAcc      ...  4.340
Radial Grid Type                 RadialGrid  ... Gauss-Chebyshev
Angular Grid (max. acc.)         AngularGrid ... Lebedev-110
Angular grid pruning method      GridPruning ... 3 (G Style)
Weight generation scheme         WeightScheme... Becke
Basis function cutoff            BFCut       ...    1.0000e-11
Integration weight cutoff        WCut        ...    1.0000e-14
Grids for H and He will be reduced by one unit

# of grid points (after initial pruning)     ...   4628 (   0.0 sec)
# of grid points (after weights+screening)   ...   4603 (   0.0 sec)
nearest neighbour list constructed           ...    0.0 sec
Grid point re-assignment to atoms done       ...    0.0 sec
Grid point division into batches done        ...    0.0 sec
Reduced shell lists constructed in    0.1 sec

Total number of grid points                  ...     4603
Total number of batches                      ...       73
Average number of points per batch           ...       63
Average number of grid points per atom       ...     2302
Average number of shells per batch           ...    14.81 (61.71%)
Average number of basis functions per batch  ...    34.59 (66.53%)
Average number of large shells per batch     ...    13.07 (88.23%)
Average number of large basis fcns per batch ...    30.15 (87.15%)
Maximum spatial batch extension              ...  20.48, 30.38, 28.73 au
Average spatial batch extension              ...   5.84,  6.98,  6.77 au

Time for grid setup =    0.067 sec

--------------
SCF ITERATIONS
--------------
ITER       Energy         Delta-E        Max-DP      RMS-DP      [F,P]     Damp
               ***  Starting incremental Fock matrix formation  ***
  0  -1225.7211693570   0.000000000000 0.00003862  0.00000210  0.0003232 0.7000
  1  -1225.7211694632  -0.000000106162 0.00003395  0.00000199  0.0001900 0.7000
                               ***Turning on DIIS***
  2  -1225.7211695548  -0.000000091630 0.00012038  0.00000712  0.0001143 0.0000
  3  -1225.7211698641  -0.000000309286 0.00018948  0.00000472  0.0000638 0.0000
  4  -1225.7211698647  -0.000000000547 0.00008200  0.00000231  0.0001444 0.0000
  5  -1225.7211699199  -0.000000055275 0.00004818  0.00000209  0.0000248 0.0000
  6  -1225.7211699372  -0.000000017245 0.00004849  0.00000191  0.0000248 0.0000
  7  -1225.7211699517  -0.000000014538 0.00003567  0.00000131  0.0000249 0.0000
  8  -1225.7211699620  -0.000000010297 0.00003443  0.00000126  0.0000249 0.0000
  9  -1225.7211699719  -0.000000009914 0.00002428  0.00000089  0.0000250 0.0000
 10  -1225.7211699790  -0.000000007043 0.00001940  0.00000071  0.0000250 0.0000
 11  -1225.7211699846  -0.000000005630 0.00002289  0.00000084  0.0000250 0.0000
 12  -1225.7211699911  -0.000000006540 0.00002430  0.00000089  0.0000250 0.0000
 13  -1225.7211699981  -0.000000006938 0.00002154  0.00000079  0.0000251 0.0000
 14  -1225.7211700043  -0.000000006182 0.00001282  0.00000047  0.0000251 0.0000
 15  -1225.7211700081  -0.000000003816 0.00001258  0.00000046  0.0000251 0.0000
 16  -1225.7211700116  -0.000000003549 0.00001850  0.00000068  0.0000251 0.0000
 17  -1225.7211700171  -0.000000005486 0.00002160  0.00000079  0.0000251 0.0000
 18  -1225.7211700233  -0.000000006168 0.00002123  0.00000078  0.0000252 0.0000
 19  -1225.7211700296  -0.000000006297 0.00002074  0.00000076  0.0000252 0.0000
               *** Restarting incremental Fock matrix formation ***
                                   *** Resetting DIIS ***
 20  -1225.7211700354  -0.000000005810 0.00004038  0.00000148  0.0000252 0.0000
 21  -1225.7211700473  -0.000000011878 0.00001598  0.00000059  0.0000252 0.0000
 22  -1225.7211700518  -0.000000004484 0.00002808  0.00000103  0.0000253 0.0000
 23  -1225.7211700600  -0.000000008283 0.00002589  0.00000095  0.0000253 0.0000
 24  -1225.7211700675  -0.000000007503 0.00001964  0.00000072  0.0000253 0.0000
 25  -1225.7211700733  -0.000000005773 0.00002878  0.00000105  0.0000253 0.0000
 26  -1225.7211700817  -0.000000008394 0.00002731  0.00000100  0.0000254 0.0000
 27  -1225.7211700897  -0.000000007996 0.00001733  0.00000063  0.0000254 0.0000
 28  -1225.7211700947  -0.000000004981 0.00000742  0.00000028  0.0000254 0.0000
 29  -1225.7211700970  -0.000000002363 0.00001573  0.00000058  0.0000254 0.0000
 30  -1225.7211701015  -0.000000004495 0.00002233  0.00000082  0.0000255 0.0000
 31  -1225.7211701082  -0.000000006667 0.00002334  0.00000085  0.0000255 0.0000
 32  -1225.7211701150  -0.000000006798 0.00002135  0.00000078  0.0000255 0.0000
 33  -1225.7211701214  -0.000000006428 0.00002090  0.00000076  0.0000255 0.0000
 34  -1225.7211701275  -0.000000006039 0.00001866  0.00000069  0.0000256 0.0000
 35  -1225.7211701331  -0.000000005652 0.00001844  0.00000067  0.0000256 0.0000
 36  -1225.7211701385  -0.000000005333 0.00001876  0.00000069  0.0000256 0.0000
 37  -1225.7211701442  -0.000000005702 0.00001957  0.00000072  0.0000256 0.0000
 38  -1225.7211701498  -0.000000005671 0.00002027  0.00000075  0.0000256 0.0000
 39  -1225.7211701560  -0.000000006145 0.00002068  0.00000076  0.0000257 0.0000
               *** Restarting incremental Fock matrix formation ***
                                   *** Resetting DIIS ***
 40  -1225.7211701623  -0.000000006344 0.00004111  0.00000151  0.0000257 0.0000
 41  -1225.7211701746  -0.000000012292 0.00001562  0.00000058  0.0000257 0.0000
 42  -1225.7211701791  -0.000000004483 0.00002993  0.00000110  0.0000257 0.0000
 43  -1225.7211701881  -0.000000009007 0.00002697  0.00000099  0.0000258 0.0000
 44  -1225.7211701961  -0.000000007995 0.00002001  0.00000073  0.0000258 0.0000
 45  -1225.7211702021  -0.000000005964 0.00002941  0.00000108  0.0000258 0.0000
 46  -1225.7211702108  -0.000000008759 0.00002756  0.00000101  0.0000259 0.0000
 47  -1225.7211702191  -0.000000008238 0.00001721  0.00000063  0.0000259 0.0000
 48  -1225.7211702241  -0.000000005036 0.00000735  0.00000028  0.0000259 0.0000
 49  -1225.7211702265  -0.000000002401 0.00001651  0.00000061  0.0000259 0.0000
 50  -1225.7211702313  -0.000000004822 0.00002289  0.00000084  0.0000259 0.0000
 51  -1225.7211702383  -0.000000006969 0.00002380  0.00000087  0.0000260 0.0000
 52  -1225.7211702454  -0.000000007079 0.00002177  0.00000080  0.0000260 0.0000
 53  -1225.7211702520  -0.000000006680 0.00002126  0.00000078  0.0000260 0.0000
 54  -1225.7211702583  -0.000000006295 0.00001890  0.00000070  0.0000260 0.0000
[...]
   # of expansion vecs  DIISMaxEq       ....     5
   Bias factor          DIISBfac        ....   1.050
   Max. coefficient     DIISMaxC        ....  10.000
 Newton-Raphson         CNVNR           .... off
 SOSCF                  CNVSOSCF        .... off
 Level Shifting         CNVShift        .... on
   Level shift para.    LevelShift      ....    0.2500
   Turn off err/grad.   ShiftErr        ....    0.0010
 Zerner damping         CNVZerner       .... off
 Static damping         CNVDamp         .... on
   Fraction old density DampFac         ....    0.7000
   Max. Damping (<1)    DampMax         ....    0.9800
   Min. Damping (>=0)   DampMin         ....    0.0000
   Turn off err/grad.   DampErr         ....    0.1000
 Fernandez-Rico         CNVRico         .... off

SCF Procedure:
 Maximum # iterations   MaxIter         ....   125
 SCF integral mode      SCFMode         .... Direct
   Integral package                     .... LIBINT
 Reset frequeny         DirectResetFreq ....    20
 Integral Threshold     Thresh          ....  2.500e-11 Eh
 Primitive CutOff       TCut            ....  2.500e-12 Eh

Convergence Tolerance:
 Convergence Check Mode ConvCheckMode   .... Total+1el-Energy
 Convergence forced     ConvForced      .... 0
 Energy Change          TolE            ....  1.000e-08 Eh
 1-El. energy change                    ....  1.000e-05 Eh
 DIIS Error             TolErr          ....  5.000e-07


Diagonalization of the overlap matrix:
Smallest eigenvalue                        ... 9.623e-03
Time for diagonalization                   ...    0.003 sec
Threshold for overlap eigenvalues          ... 1.000e-08
Number of eigenvalues below threshold      ... 0
Time for construction of square roots      ...    0.006 sec
Total time needed                          ...    0.009 sec

---------------------
INITIAL GUESS: MOREAD
---------------------
Guess MOs are being read from file: 5MnO+/32523463.gbw
Input Geometry matches current geometry (good)
Input basis set matches current basis set (good)
MOs were renormalized
MOs were reorthogonalized (Cholesky)
                      ------------------
                      INITIAL GUESS DONE (   0.0 sec)
                      ------------------
-------------------
DFT GRID GENERATION
-------------------

General Integration Accuracy     IntAcc      ...  4.340
Radial Grid Type                 RadialGrid  ... Gauss-Chebyshev
Angular Grid (max. acc.)         AngularGrid ... Lebedev-110
Angular grid pruning method      GridPruning ... 3 (G Style)
Weight generation scheme         WeightScheme... Becke
Basis function cutoff            BFCut       ...    1.0000e-11
Integration weight cutoff        WCut        ...    1.0000e-14
Grids for H and He will be reduced by one unit

# of grid points (after initial pruning)     ...   4628 (   0.0 sec)
# of grid points (after weights+screening)   ...   4603 (   0.0 sec)
nearest neighbour list constructed           ...    0.0 sec
Grid point re-assignment to atoms done       ...    0.0 sec
Grid point division into batches done        ...    0.0 sec
Reduced shell lists constructed in    0.1 sec

Total number of grid points                  ...     4603
Total number of batches                      ...       73
Average number of points per batch           ...       63
Average number of grid points per atom       ...     2302
Average number of shells per batch           ...    14.81 (61.71%)
Average number of basis functions per batch  ...    34.62 (66.58%)
Average number of large shells per batch     ...    13.08 (88.32%)
Average number of large basis fcns per batch ...    30.19 (87.20%)
Maximum spatial batch extension              ...  20.48, 30.38, 28.73 au
Average spatial batch extension              ...   5.83,  7.00,  6.78 au

Time for grid setup =    0.066 sec

--------------
SCF ITERATIONS
--------------
ITER       Energy         Delta-E        Max-DP      RMS-DP      [F,P]     Damp
               ***  Starting incremental Fock matrix formation  ***
  0  -1225.7211706876   0.000000000000 0.00000502  0.00000021  0.0000278 0.7000
                 **** Energy Check signals convergence ****

               *****************************************************
               *                     SUCCESS                       *
               *           SCF CONVERGED AFTER   1 CYCLES          *
               *****************************************************

Setting up the final grid:

General Integration Accuracy     IntAcc      ...  4.670
Radial Grid Type                 RadialGrid  ... Gauss-Chebyshev
Angular Grid (max. acc.)         AngularGrid ... Lebedev-302
Angular grid pruning method      GridPruning ... 3 (G Style)
Weight generation scheme         WeightScheme... Becke
Basis function cutoff            BFCut       ...    1.0000e-11
Integration weight cutoff        WCut        ...    1.0000e-14
Grids for H and He will be reduced by one unit

# of grid points (after initial pruning)     ...  15876 (   0.0 sec)
# of grid points (after weights+screening)   ...  15835 (   0.0 sec)
nearest neighbour list constructed           ...    0.0 sec
Grid point re-assignment to atoms done       ...    0.0 sec
Grid point division into batches done        ...    0.1 sec
Reduced shell lists constructed in    0.2 sec

Total number of grid points                  ...    15835
Total number of batches                      ...      248
Average number of points per batch           ...       63
Average number of grid points per atom       ...     7918
Average number of shells per batch           ...    13.39 (55.81%)
Average number of basis functions per batch  ...    31.01 (59.63%)
Average number of large shells per batch     ...    11.44 (85.43%)
Average number of large basis fcns per batch ...    26.37 (85.03%)
Maximum spatial batch extension              ...  22.00, 28.57, 28.57 au
Average spatial batch extension              ...   3.83,  4.31,  4.22 au

Final grid set up in    0.2 sec
Final integration                            ... done (   0.1 sec)
Change in XC energy                          ...    -0.000034249
Integrated number of electrons               ...    32.000007934
Previous integrated no of electrons          ...    32.000169917

----------------
TOTAL SCF ENERGY
----------------

Total Energy       :        -1225.72120494 Eh          -33353.56965 eV

Components:
Nuclear Repulsion  :           60.35073761 Eh            1642.22706 eV
Electronic Energy  :        -1286.07194254 Eh          -34995.79671 eV
One Electron Energy:        -1800.92335725 Eh          -49005.61595 eV
Two Electron Energy:          514.85141471 Eh           14009.81924 eV

Virial components:
Potential Energy   :        -2450.54373058 Eh          -66682.68499 eV
Kinetic Energy     :         1224.82252564 Eh           33329.11534 eV
Virial Ratio       :            2.00073372


DFT components:
N(Alpha)           :       18.000002640427 electrons
N(Beta)            :       14.000005293286 electrons
N(Total)           :       32.000007933713 electrons
E(X)               :      -47.011116379080 Eh       
E(C)               :       -1.592713045538 Eh       
E(XC)              :      -48.603829424619 Eh       

---------------
SCF CONVERGENCE
---------------

  Last Energy change         ...   -1.4907e-09  Tolerance :   1.0000e-08
  Last MAX-Density change    ...    1.4297e-06  Tolerance :   1.0000e-07
  Last RMS-Density change    ...    6.8490e-08  Tolerance :   5.0000e-09
  Last DIIS Error            ...    2.7636e-05  Tolerance :   5.0000e-07

             **** THE GBW FILE WAS UPDATED (5MnO+/32523463.gbw) ****
             **** DENSITY FILE WAS UPDATED (5MnO+/32523463.scfp.tmp) ****
             **** ENERGY FILE WAS UPDATED (5MnO+/32523463.en.tmp) ****
----------------------
UHF SPIN CONTAMINATION
----------------------

Warning: in a DFT calculation there is little theoretical justification to 
         calculate <S**2> as in Hartree-Fock theory. We will do it anyways
         but you should keep in mind that the values have only limited relevance

Expectation value of <S**2>     :     6.796079
Ideal value S*(S+1) for S=2.0   :     6.000000
Deviation                       :     0.796079

----------------
ORBITAL ENERGIES
----------------
                 SPIN UP ORBITALS
  NO   OCC          E(Eh)            E(eV) 
   0   1.0000    -235.773313     -6415.7180 
   1   1.0000     -27.631003      -751.8778 
   2   1.0000     -23.717287      -645.3802 
   3   1.0000     -23.713960      -645.2897 
   4   1.0000     -23.709635      -645.1720 
   5   1.0000     -19.372847      -527.1620 
   6   1.0000      -3.579049       -97.3909 
   7   1.0000      -2.451735       -66.7151 
   8   1.0000      -2.445998       -66.5590 
   9   1.0000      -2.443517       -66.4915 
  10   1.0000      -1.112920       -30.2841 
  11   1.0000      -0.655678       -17.8419 
  12   1.0000      -0.650743       -17.7076 
  13   1.0000      -0.645371       -17.5614 
  14   1.0000      -0.642635       -17.4870 
  15   1.0000      -0.641884       -17.4665 
  16   1.0000      -0.512362       -13.9421 
  17   1.0000      -0.508722       -13.8430 
  18   0.0000      -0.372261       -10.1297 
  19   0.0000      -0.334750        -9.1090 
  20   0.0000      -0.074936        -2.0391 
  21   0.0000       0.398192        10.8354 
  22   0.0000       0.461644        12.5620 
  23   0.0000       0.477747        13.0001 
  24   0.0000       0.644368        17.5342 
  25   0.0000       0.648794        17.6546 
  26   0.0000       0.672548        18.3010 
  27   0.0000       0.694253        18.8916 
  28   0.0000       0.694383        18.8951 
  29   0.0000       0.832777        22.6610 
  30   0.0000       0.832824        22.6623 
  31   0.0000       0.935292        25.4506 
  32   0.0000       1.223372        33.2897 
  33   0.0000       2.046034        55.6754 
  34   0.0000       4.513640       122.8224 
  35   0.0000       4.544833       123.6712 
  36   0.0000       4.619499       125.7030 
  37   0.0000       4.759875       129.5228 
  38   0.0000       4.760038       129.5272 
  39   0.0000       4.801425       130.6534 
  40   0.0000       4.804249       130.7303 
  41   0.0000       4.858905       132.2175 
  42   0.0000       6.458852       175.7543 
  43   0.0000       6.465391       175.9322 
  44   0.0000       6.852938       186.4779 
  45   0.0000      22.828148       621.1855 
  46   0.0000      30.069301       818.2273 
  47   0.0000      30.074639       818.3725 
  48   0.0000      30.354065       825.9761 
  49   0.0000      49.412502      1344.5825 
  50   0.0000     133.628612      3636.2194 
  51   0.0000     712.907670     19399.2039 

                 SPIN DOWN ORBITALS
  NO   OCC          E(Eh)            E(eV) 
   0   1.0000    -235.772984     -6415.7091 
   1   1.0000     -27.549961      -749.6725 
   2   1.0000     -23.649368      -643.5320 
   3   1.0000     -23.647511      -643.4815 
   4   1.0000     -23.644932      -643.4113 
   5   1.0000     -19.392715      -527.7026 
   6   1.0000      -3.372161       -91.7612 
   7   1.0000      -2.233360       -60.7728 
   8   1.0000      -2.231118       -60.7118 
   9   1.0000      -2.223116       -60.4941 
  10   1.0000      -1.170432       -31.8491 
  11   1.0000      -0.618385       -16.8271 
  12   1.0000      -0.594608       -16.1801 
  13   1.0000      -0.552208       -15.0263 
  14   0.0000      -0.358553        -9.7567 
  15   0.0000      -0.334296        -9.0967 
  16   0.0000      -0.334146        -9.0926 
  17   0.0000      -0.325437        -8.8556 
  18   0.0000      -0.316418        -8.6102 
  19   0.0000      -0.269772        -7.3409 
  20   0.0000      -0.057403        -1.5620 
  21   0.0000       0.435351        11.8465 
  22   0.0000       0.462015        12.5721 
  23   0.0000       0.498154        13.5555 
  24   0.0000       0.652880        17.7658 
  25   0.0000       0.721632        19.6366 
  26   0.0000       0.730684        19.8829 
  27   0.0000       0.805837        21.9279 
  28   0.0000       0.805878        21.9290 
  29   0.0000       0.904352        24.6087 
  30   0.0000       0.914743        24.8914 
  31   0.0000       0.982704        26.7407 
  32   0.0000       1.282723        34.9047 
  33   0.0000       2.163573        58.8738 
  34   0.0000       4.444662       120.9454 
  35   0.0000       4.509364       122.7060 
  36   0.0000       4.596823       125.0859 
  37   0.0000       4.909606       133.5972 
  38   0.0000       4.909767       133.6015 
  39   0.0000       4.941931       134.4768 
  40   0.0000       4.947270       134.6221 
  41   0.0000       4.990151       135.7889 
  42   0.0000       6.600313       179.6036 
  43   0.0000       6.608212       179.8186 
  44   0.0000       6.982294       189.9979 
  45   0.0000      22.947005       624.4198 
  46   0.0000      30.165943       820.8571 
  47   0.0000      30.172524       821.0361 
  48   0.0000      30.447195       828.5103 
  49   0.0000      49.392506      1344.0384 
  50   0.0000     133.672324      3637.4089 
  51   0.0000     712.916692     19399.4494 

                    ********************************
                    * MULLIKEN POPULATION ANALYSIS *
                    ********************************

--------------------------------------------
MULLIKEN ATOMIC CHARGES AND SPIN POPULATIONS
--------------------------------------------
   0 Mn:    1.338559    4.811048
   1 O :   -0.338559   -0.811048
Sum of atomic charges         :    1.0000000
Sum of atomic spin populations:    4.0000000

-----------------------------------------------------
MULLIKEN REDUCED ORBITAL CHARGES AND SPIN POPULATIONS
-----------------------------------------------------
CHARGE
  0 Mns       :     6.415647  s :     6.415647
      pz      :     4.005722  p :    12.022287
      px      :     4.015166
      py      :     4.001399
      dz2     :     1.017963  d :     5.223507
      dxz     :     1.138269
      dyz     :     1.000001
      dx2y2   :     1.060421
      dxy     :     1.006853
  1 O s       :     3.990229  s :     3.990229
      pz      :     1.844868  p :     4.348330
      px      :     1.500573
      py      :     1.002890

SPIN
  0 Mns       :     0.326660  s :     0.326660
      pz      :     0.002173  p :     0.002223
      px      :     0.001803
      py      :    -0.001753
      dz2     :     0.937608  d :     4.482164
      dxz     :     0.869579
      dyz     :     0.999999
      dx2y2   :     0.808847
      dxy     :     0.866131
  1 O s       :     0.000578  s :     0.000578
      pz      :     0.117106  p :    -0.811626
      px      :    -0.075495
      py      :    -0.853236


                     *******************************
                     * LOEWDIN POPULATION ANALYSIS *
                     *******************************

-------------------------------------------
LOEWDIN ATOMIC CHARGES AND SPIN POPULATIONS
-------------------------------------------
   0 Mn:    1.308855    4.777140
   1 O :   -0.308855   -0.777140

----------------------------------------------------
LOEWDIN REDUCED ORBITAL CHARGES AND SPIN POPULATIONS
----------------------------------------------------
CHARGE
  0 Mns       :     6.413929  s :     6.413929
      pz      :     4.004569  p :    12.013360
      px      :     4.008288
      py      :     4.000503
      dz2     :     1.025891  d :     5.263856
      dxz     :     1.144817
      dyz     :     1.000001
      dx2y2   :     1.084425
      dxy     :     1.008723
  1 O s       :     3.915065  s :     3.915065
      pz      :     1.839473  p :     4.393790
      px      :     1.552401
      py      :     1.001916

SPIN
  0 Mns       :     0.304773  s :     0.304773
      pz      :     0.001978  p :     0.000580
      px      :     0.000369
      py      :    -0.001768
      dz2     :     0.937207  d :     4.471788
      dxz     :     0.867877
      dyz     :     0.999999
      dx2y2   :     0.807709
      dxy     :     0.858996
  1 O s       :     0.004570  s :     0.004570
      pz      :     0.119003  p :    -0.781710
      px      :    -0.054626
      py      :    -0.846086


                      *****************************
                      * MAYER POPULATION ANALYSIS *
                      *****************************

  NA   - Mulliken gross atomic population
  ZA   - Total nuclear charge
  QA   - Mulliken gross atomic charge
  VA   - Mayer's total valence
  BVA  - Mayer's bonded valence
  FA   - Mayer's free valence

  ATOM       NA         ZA         QA         VA         BVA        FA
  0 Mn    23.6614    25.0000     1.3386     5.6698     1.2635     4.4063
  1 O      8.3386     8.0000    -0.3386     2.0347     1.2635     0.7713

  Mayer bond orders larger than 0.1
B(  0-Mn,  1-O ) :   1.2635 

-------
TIMINGS
-------

Total SCF time: 0 days 0 hours 0 min 1 sec 

Total time                  ....       1.078 sec
Sum of individual times     ....       1.001 sec  ( 92.8%)

Fock matrix formation       ....       0.694 sec  ( 64.4%)
  XC integration            ....       0.271 sec  ( 39.0% of F)
    Basis function eval.    ....       0.061 sec  ( 22.7% of XC)
    Density eval.           ....       0.029 sec  ( 10.7% of XC)
    XC-Functional eval.     ....       0.044 sec  ( 16.1% of XC)
    XC-Potential eval.      ....       0.037 sec  ( 13.7% of XC)
Diagonalization             ....       0.006 sec  (  0.5%)
Density matrix formation    ....       0.000 sec  (  0.0%)
Population analysis         ....       0.028 sec  (  2.6%)
Initial guess               ....       0.002 sec  (  0.2%)
Orbital Transformation      ....       0.000 sec  (  0.0%)
Orbital Orthonormalization  ....       0.001 sec  (  0.1%)
DIIS solution               ....       0.000 sec  (  0.0%)
Grid generation             ....       0.270 sec  ( 25.1%)

-------------------------   --------------------
FINAL SINGLE POINT ENERGY     -1225.721204938382
-------------------------   --------------------

                                *** OPTIMIZATION RUN DONE ***

                            ***************************************
                            *     ORCA property calculations      *
                            ***************************************

                                    ---------------------
                                    Active property flags
                                    ---------------------
   (+) Dipole Moment


------------------------------------------------------------------------------
                       ORCA ELECTRIC PROPERTIES CALCULATION
------------------------------------------------------------------------------

Dipole Moment Calculation                       ... on
Quadrupole Moment Calculation                   ... off
Polarizability Calculation                      ... off
GBWName                                         ... 5MnO+/32523463.gbw
Electron density file                           ... 5MnO+/32523463.scfp.tmp

-------------
DIPOLE MOMENT
-------------
                                X             Y             Z
Electronic contribution:     -3.99577      -0.00000      -0.00000
Nuclear contribution   :      1.84737       0.00000       0.00000
                        -----------------------------------------
Total Dipole Moment    :     -2.14840      -0.00000      -0.00000
                        -----------------------------------------
Magnitude (a.u.)       :      2.14840
Magnitude (Debye)      :      5.46080


Timings for individual modules:

Sum of individual times         ...      120.522 sec (=   2.009 min)
GTO integral calculation        ...        4.252 sec (=   0.071 min)   3.5 %
SCF iterations                  ...      111.490 sec (=   1.858 min)  92.5 %
SCF Gradient evaluation         ...        4.587 sec (=   0.076 min)   3.8 %
Geometry relaxation             ...        0.193 sec (=   0.003 min)   0.2 %
                             ****ORCA TERMINATED NORMALLY****
TOTAL RUN TIME: 0 days 0 hours 2 minutes 2 seconds 783 msec
